# vtk DataFile Version 3.0
vtk output
ASCII
DATASET POLYDATA
POINTS 2000 float
0.395672 0.666292 0.105837 -0.238789 0.180172 0.0457676 -0.635974 -1.45161 0.785284 
-0.0537968 -1.45869 0.607126 -0.00684977 -1.4578 -0.456602 -0.0551299 -1.44305 -0.598158 
-0.792969 -1.42061 0.501427 -0.400621 0.441387 -0.0461947 0.838268 -1.45512 -0.122436 
0.542582 -1.46507 -1.65215 0.0455649 -0.590814 -0.229952 -0.515465 -1.46617 0.438645 
0.547957 -1.35407 0.0778776 -0.251362 0.530002 -0.168226 0.13229 -0.170128 -0.055702 
-0.10289 -1.31837 -0.00731534 -1.7106 -1.45069 -0.46006 0.0162822 0.133511 -0.00500419 
-0.00887162 -1.42496 -0.0445391 -0.0614977 -0.332495 0.0662459 -0.110569 -0.364785 0.0288439 
-0.000369943 -0.277235 -0.195571 0.250947 -1.47094 0.0865783 -0.084595 0.219341 0.0753325 
-0.10558 0.345234 0.00892944 -0.0886671 -1.47121 0.0826848 -0.0689695 0.09971 0.0523858 
-0.180799 0.247742 0.103016 -0.154702 0.174309 0.100212 -0.0194585 -1.2716 -0.24865 
0.198339 -1.46889 -0.147856 0.074577 -1.46701 -0.205404 0.100766 0.0818482 0.169819 
-0.0550395 -0.295415 -0.109706 0.241699 0.287008 0.107735 -0.147076 -0.554435 0.00332249 
-0.0816117 -0.768893 -0.106802 -0.386859 -1.40704 -0.164334 -0.344707 0.494549 0.055417 
-0.686372 -1.44778 0.527464 0.0181111 -0.798595 0.10482 -0.262133 0.294468 0.0526915 
-0.210657 0.626047 0.10249 -0.160681 0.312882 0.115032 0.00663154 -0.10711 0.110867 
0.218149 -0.839599 -0.109416 -0.293176 -1.40791 0.726853 0.00416618 -1.41097 0.717494 
0.204987 0.107944 -0.0145189 -0.442201 -1.46218 1.37274 -0.0905701 0.0619198 -0.0138752 
0.236086 0.586009 0.109456 0.364719 0.596859 0.0493596 -0.264123 0.533049 -0.0341468 
-0.436826 -1.45933 1.20418 1.04531 -1.44501 -1.024 0.123026 0.227413 -0.0520615 
-0.0339558 -0.681509 -0.0597308 -0.0478927 -0.620949 0.109834 -0.0555783 0.131042 -0.110262 
0.289974 0.233831 -0.070801 -0.277259 -1.4579 0.0831449 -0.194593 0.0531227 -0.162002 
0.208856 0.622565 0.16785 -0.966098 -1.46162 0.487601 -0.0826266 -0.135742 -0.17976 
0.0613845 -1.46228 0.401269 -0.385787 0.678672 0.0137922 0.429061 0.498905 -0.0542735 
0.0351356 0.42709 0.00312226 -0.0712103 0.396376 0.0311625 0.194995 -1.32259 0.803773 
0.130693 0.168806 -0.03052 0.181351 -1.44841 -0.423633 0.100507 -1.46743 0.00476336 
0.23189 0.146837 0.0635845 -0.031879 0.351356 -0.106681 0.341987 0.410466 -0.0220981 
0.609731 -1.38648 -0.475435 1.2804 -1.46529 -0.0887417 -1.23715 -1.45298 -0.0966855 
0.539759 -1.39218 1.08712 0.940887 -1.46616 0.322799 0.345199 -1.37479 0.402305 
-0.0537479 -0.843476 0.0861945 -0.262454 0.650221 -0.0112591 0.116923 0.36095 0.112032 
-0.00308256 0.497047 0.10125 -0.153959 -1.45665 0.549784 0.387192 0.416459 0.156964 
-0.228002 0.456607 -0.00427033 1.14974 -1.45588 0.0760968 -0.0805723 -1.35436 -0.0491372 
-0.0367495 -0.808568 -0.269591 -0.336859 -1.43936 -0.485702 0.135111 -1.12951 -0.0718926 
-0.400819 0.44802 0.0496286 -0.0213933 0.114161 0.0952953 0.165972 0.332014 0.0115068 
0.355306 0.357291 0.168392 0.195229 -0.366673 -0.188457 1.16233 -1.46485 0.522757 
0.238968 -1.45781 0.16406 -0.303331 -1.45002 0.796264 -0.386897 0.722857 -0.0828981 
0.588148 -1.32989 -0.0374137 0.607136 -1.38666 -0.334629 -1.01274 -1.40685 0.629088 
0.177147 -0.739409 -0.0874806 0.150662 -1.44949 -0.528386 0.243164 0.420609 -0.00342459 
-0.437046 -1.18651 -1.3331 -0.813028 -1.45782 -1.33086 -0.31831 0.498335 -0.0325245 
-0.310819 -1.45015 0.194857 -0.1495 0.47701 -0.165764 -0.121327 -0.0549406 -0.053865 
0.0333788 -0.71707 -0.0491985 0.183244 -1.23425 -0.0881025 -0.248956 0.612704 0.165786 
-0.143004 0.303954 -0.16778 0.828908 -1.44554 -0.00590644 0.191389 0.343772 -0.072869 
0.29851 -1.43335 -0.00466089 -1.27733 -1.45402 0.737296 -0.577606 -1.4593 0.076378 
0.841566 -1.45956 0.338721 -0.0204215 -0.978079 -0.0437017 0.694632 -1.46451 -0.500206 
0.304556 0.617365 -0.0661317 -0.160511 -1.06171 0.0714602 -0.010571 -0.525114 -0.156076 
0.583558 -1.42959 0.350365 0.0573955 0.640452 0.113562 0.19339 0.394534 -0.0326269 
0.113228 -1.33104 0.0365595 -0.0920589 -0.119086 -0.0515593 -0.0935175 0.453914 -0.111056 
-0.274583 0.607628 -0.0584121 -0.801713 -1.46914 -0.272842 0.0442214 0.324209 0.104624 
0.469846 -1.26857 -0.795715 0.217039 0.29162 0.00427106 0.792575 -1.45259 0.383162 
1.31346 -1.46193 0.175807 -0.390902 -1.43206 1.07323 0.461766 0.688861 0.0774847 
0.325369 0.677107 0.0842339 1.10849 -1.47009 -0.191005 0.133266 -0.40179 -0.00255194 
-0.320265 -1.36792 0.481327 -0.322183 -1.24108 -0.262116 0.295894 0.469365 -0.0672041 
0.389295 0.527244 -0.10119 -0.259338 -1.44592 1.34189 -0.347595 -1.44563 1.20561 
-0.15357 0.0206936 -0.116278 -0.0905603 -1.46551 0.256909 -0.0407243 -0.251116 -0.0610862 
0.124999 -1.46165 -0.289238 0.293941 0.575252 -0.166269 0.00588431 -1.3858 0.00530949 
-0.206572 0.655269 -0.165581 -0.152401 -0.519002 0.157739 -0.0873678 0.236475 0.011836 
-1.07163 -1.45015 0.187571 -1.50075 -1.47056 0.218832 -0.477596 0.586938 0.169663 
-0.116943 -0.757045 0.0547053 0.940851 -1.44292 -0.233064 0.116005 -0.296714 -0.187995 
0.161763 0.435014 0.0994402 0.0404813 -1.05736 0.226298 0.0248078 -1.12615 0.0408199 
-0.00698764 -1.45641 0.164319 0.0764146 -0.503338 -0.145262 0.354464 -1.43939 0.0691549 
-0.185504 0.177201 0.169152 -0.879519 -1.43219 -0.551141 -0.41641 0.591068 0.110018 
0.0073774 -0.962993 -0.117174 -0.178592 0.0279607 0.00631858 -0.627669 -1.46934 -0.829934 
-0.057211 -1.02231 0.00833334 -0.888029 -1.46746 -0.181395 0.0680444 -0.104921 -0.11574 
-1.53394 -1.45712 1.07821 -0.248415 0.265191 -0.0687072 -0.133999 -0.510188 -0.0678841 
-0.0812457 -1.38773 0.0537181 -0.101228 0.294662 -0.103932 0.643009 -1.44788 -0.235609 
-0.236337 0.622934 -0.106444 0.808106 -1.39666 -0.548844 0.126105 -1.03628 0.0933096 
0.334746 0.449697 0.11486 0.3248 -1.46886 0.639701 0.0434951 -0.111017 0.0559794 
-0.22479 0.305985 -0.111603 0.0864371 0.56602 0.0578512 0.0119234 -0.436547 -0.176927 
0.0855948 -0.904118 -0.154049 1.22883 -1.4292 -0.154953 -0.0220088 -0.0480287 0.113089 
0.351614 -1.45279 0.986664 -0.705408 -1.41068 0.165227 -0.0899603 0.103469 -0.168045 
-0.0453748 0.653261 -0.159769 -0.244968 -1.29581 0.676436 0.148122 -0.482139 -0.0209932 
-0.243588 -1.41402 -0.132983 -0.0905998 -0.630668 -0.0446911 0.120247 -0.0015987 -0.1098 
0.0412009 -0.978338 0.108281 0.054497 -0.0296997 -0.138855 -0.699336 -1.46445 0.905106 
-0.293466 0.449541 0.00139919 -0.732596 -1.46366 0.128437 0.121671 -1.43836 0.786429 
0.437177 -1.46565 0.391828 -0.565895 -1.34212 -1.25928 0.612374 -1.43964 -1.47634 
0.0666908 -0.870136 0.195209 0.315834 -1.46882 -0.257432 0.0793247 -0.80679 -0.0819539 
0.0984149 0.437043 0.115589 0.145967 -0.351197 0.199325 -0.118411 0.479439 0.0586981 
-0.933075 -1.34764 -0.372666 -0.0594841 -1.46808 -0.083837 0.00973171 -1.40012 -0.497545 
-0.226627 -1.39097 -0.208466 0.211056 -1.17824 -0.207362 -0.197849 -1.45818 0.598176 
0.277686 0.413742 0.0492732 0.363482 -1.45746 -1.15808 0.394446 -1.46997 -0.0377575 
0.204678 0.0728184 0.105765 0.00138534 0.170734 0.110658 -0.347459 -1.37682 -0.0226646 
0.224713 0.227789 -0.164756 0.390912 -1.46985 -0.1045 0.159115 0.0491752 0.0643257 
0.106217 -0.60855 -0.0428715 -0.0248008 0.0723543 -0.117215 -1.14207 -1.43553 -0.978835 
0.00759913 -1.47072 -0.0752845 -0.00524852 -0.395268 0.185717 0.0425367 0.314362 -0.167126 
0.190447 0.37402 0.123224 -0.435902 0.50893 0.0618398 0.0432451 0.478615 -0.164847 
-0.0539595 -1.45554 -0.499938 0.0578537 0.57215 0.115894 0.733444 -1.46598 -0.104431 
0.345137 0.620975 0.113522 -0.899827 -1.46529 -0.0677193 0.357362 -1.46848 0.723754 
0.181031 -0.526576 -0.0539568 0.458268 -1.46359 -0.910465 -0.402414 0.582949 -0.108859 
-0.838127 -1.45556 0.272711 -0.201402 -0.658316 -0.190084 0.603522 -1.46837 -0.941739 
-0.108204 -1.46267 -0.140304 0.160617 -0.360325 0.0575082 0.00278591 -1.41012 -0.182022 
0.696886 -1.39036 1.07414 -0.536189 -1.46685 0.175957 0.296221 0.252841 0.0986976 
-0.300371 0.357659 -0.053101 0.0510076 -0.0243553 -0.0143914 0.0223076 -1.47024 0.0786309 
0.3192 0.291601 -0.0478953 -0.0843486 0.380606 -0.122272 0.560133 -1.32648 -0.285721 
0.177885 -1.09806 0.0756441 0.279246 0.30583 0.001274 -0.133622 0.0961233 -0.092828 
-0.359985 0.36878 -0.167227 -0.557513 -1.44798 -0.01426 -0.0878844 -0.00314813 -0.115418 
0.0881563 -1.46668 -0.79303 0.0222766 0.382272 -0.102849 0.0463093 -1.4468 1.51812 
0.49149 -0.729375 0.00758698 0.324625 0.300176 0.168337 0.0363571 -1.3158 0.0744713 
-0.173944 0.115006 0.070219 -0.103168 -1.16329 0.177065 -0.963721 -1.45431 -0.311503 
-1.42548 -1.43868 0.77845 -0.108168 -1.46378 0.0170602 0.617419 -1.40506 -0.652812 
0.277535 0.302454 -0.166923 -0.871643 -1.46646 0.0315848 -0.635636 -1.41111 -0.451304 
-0.703612 -1.4603 1.14874 0.126952 0.649392 -0.0122951 1.3041 -1.31285 -0.0378004 
0.0655043 -0.280073 0.000639557 0.0280408 -1.40695 0.100358 -0.00227424 -0.636731 0.264986 
-0.645904 -1.44299 -0.0789146 0.643098 -1.44811 0.256943 0.982443 -1.39124 -1.29526 
-0.811502 -1.40879 0.317251 -0.179673 -1.46695 -0.139517 -1.90046 -1.45557 0.385575 
-0.918445 -1.461 0.443924 -0.478331 -1.46418 0.603347 1.01354 -1.46548 -0.961663 
-0.137817 0.261322 -0.0628207 0.174255 0.505877 -0.0497215 -0.365905 0.667924 0.167604 
-0.0740741 -0.73306 -0.204733 -0.358501 -1.16966 -0.660421 0.011707 0.535957 -0.169584 
-0.0873582 0.060321 -0.119142 -0.209836 -1.42994 -0.0383196 0.0246077 0.171477 0.168045 
-0.695304 -1.47055 -0.799208 -0.723158 -1.46113 -0.137669 -0.248974 0.369145 -0.00262449 
-0.154941 -0.881576 0.217567 0.0528751 -1.06481 0.054012 -0.0775408 0.350746 -0.0643641 
-0.144384 -1.43117 -0.678551 0.29787 0.616139 0.0688603 -0.176316 -0.733285 0.025983 
0.162221 0.378721 0.0634651 -0.0957531 0.520888 -0.111241 -0.299942 0.516564 -0.0899604 
-0.0919513 0.559192 0.00754303 0.061874 -0.753452 0.233584 -0.734147 -1.46768 -0.220693 
0.156002 -1.47174 0.204267 1.26171 -1.46116 0.884777 -0.422637 0.48229 -0.10507 
0.0874196 -1.42817 -0.536736 -0.488874 0.612314 -0.0150184 0.312835 -1.45088 -0.797459 
[...]
POINT_DATA 2000
FIELD FieldData 15
NodeNumbers 1 2000 int
1 2 3 4 5 6 7 8 9 
10 11 12 13 14 15 16 17 18 
19 20 21 22 23 24 25 26 27 
28 29 30 31 32 33 34 35 36 
37 38 39 40 41 42 43 44 45 
46 47 48 49 50 51 52 53 54 
55 56 57 58 59 60 61 62 63 
64 65 66 67 68 69 70 71 72 
73 74 75 76 77 78 79 80 81 
82 83 84 85 86 87 88 89 90 
91 92 93 94 95 96 97 98 99 
100 101 102 103 104 105 106 107 108 
109 110 111 112 113 114 115 116 117 
118 119 120 121 122 123 124 125 126 
127 128 129 130 131 132 133 134 135 
136 137 138 139 140 141 142 143 144 
145 146 147 148 149 150 151 152 153 
154 155 156 157 158 159 160 161 162 
163 164 165 166 167 168 169 170 171 
172 173 174 175 176 177 178 179 180 
181 182 183 184 185 186 187 188 189 
190 191 192 193 194 195 196 197 198 
199 200 201 202 203 204 205 206 207 
208 209 210 211 212 213 214 215 216 
217 218 219 220 221 222 223 224 225 
226 227 228 229 230 231 232 233 234 
235 236 237 238 239 240 241 242 243 
244 245 246 247 248 249 250 251 252 
253 254 255 256 257 258 259 260 261 
262 263 264 265 266 267 268 269 270 
271 272 273 274 275 276 277 278 279 
280 281 282 283 284 285 286 287 288 
289 290 291 292 293 294 295 296 297 
298 299 300 301 302 303 304 305 306 
307 308 309 310 311 312 313 314 315 
316 317 318 319 320 321 322 323 324 
325 326 327 328 329 330 331 332 333 
334 335 336 337 338 339 340 341 342 
343 344 345 346 347 348 349 350 351 
352 353 354 355 356 357 358 359 360 
361 362 363 364 365 366 367 368 369 
370 371 372 373 374 375 376 377 378 
379 380 381 382 383 384 385 386 387 
388 389 390 391 392 393 394 395 396 
397 398 399 400 401 402 403 404 405 
406 407 408 409 410 411 412 413 414 
415 416 417 418 419 420 421 422 423 
424 425 426 427 428 429 430 431 432 
433 434 435 436 437 438 439 440 441 
442 443 444 445 446 447 448 449 450 
451 452 453 454 455 456 457 458 459 
460 461 462 463 464 465 466 467 468 
469 470 471 472 473 474 475 476 477 
478 479 480 481 482 483 484 485 486 
487 488 489 490 491 492 493 494 495 
496 497 498 499 500 501 502 503 504 
505 506 507 508 509 510 511 512 513 
514 515 516 517 518 519 520 521 522 
523 524 525 526 527 528 529 530 531 
532 533 534 535 536 537 538 539 540 
541 542 543 544 545 546 547 548 549 
550 551 552 553 554 555 556 557 558 
559 560 561 562 563 564 565 566 567 
568 569 570 571 572 573 574 575 576 
577 578 579 580 581 582 583 584 585 
586 587 588 589 590 591 592 593 594 
595 596 597 598 599 600 601 602 603 
604 605 606 607 608 609 610 611 612 
613 614 615 616 617 618 619 620 621 
622 623 624 625 626 627 628 629 630 
631 632 633 634 635 636 637 638 639 
640 641 642 643 644 645 646 647 648 
649 650 651 652 653 654 655 656 657 
658 659 660 661 662 663 664 665 666 
667 668 669 670 671 672 673 674 675 
676 677 678 679 680 681 682 683 684 
685 686 687 688 689 690 691 692 693 
694 695 696 697 698 699 700 701 702 
703 704 705 706 707 708 709 710 711 
712 713 714 715 716 717 718 719 720 
721 722 723 724 725 726 727 728 729 
730 731 732 733 734 735 736 737 738 
739 740 741 742 743 744 745 746 747 
748 749 750 751 752 753 754 755 756 
757 758 759 760 761 762 763 764 765 
766 767 768 769 770 771 772 773 774 
775 776 777 778 779 780 781 782 783 
784 785 786 787 788 789 790 791 792 
793 794 795 796 797 798 799 800 801 
802 803 804 805 806 807 808 809 810 
811 812 813 814 815 816 817 818 819 
820 821 822 823 824 825 826 827 828 
829 830 831 832 833 834 835 836 837 
838 839 840 841 842 843 844 845 846 
847 848 849 850 851 852 853 854 855 
856 857 858 859 860 861 862 863 864 
865 866 867 868 869 870 871 872 873 
874 875 876 877 878 879 880 881 882 
883 884 885 886 887 888 889 890 891 
892 893 894 895 896 897 898 899 900 
901 902 903 904 905 906 907 908 909 
910 911 912 913 914 915 916 917 918 
919 920 921 922 923 924 925 926 927 
928 929 930 931 932 933 934 935 936 
937 938 939 940 941 942 943 944 945 
946 947 948 949 950 951 952 953 954 
955 956 957 958 959 960 961 962 963 
964 965 966 967 968 969 970 971 972 
973 974 975 976 977 978 979 980 981 
982 983 984 985 986 987 988 989 990 
991 992 993 994 995 996 997 998 999 
1000 1001 1002 1003 1004 1005 1006 1007 1008 
1009 1010 1011 1012 1013 1014 1015 1016 1017 
1018 1019 1020 1021 1022 1023 1024 1025 1026 
1027 1028 1029 1030 1031 1032 1033 1034 1035 
1036 1037 1038 1039 1040 1041 1042 1043 1044 
1045 1046 1047 1048 1049 1050 1051 1052 1053 
1054 1055 1056 1057 1058 1059 1060 1061 1062 
1063 1064 1065 1066 1067 1068 1069 1070 1071 
1072 1073 1074 1075 1076 1077 1078 1079 1080 
1081 1082 1083 1084 1085 1086 1087 1088 1089 
1090 1091 1092 1093 1094 1095 1096 1097 1098 
1099 1100 1101 1102 1103 1104 1105 1106 1107 
1108 1109 1110 1111 1112 1113 1114 1115 1116 
1117 1118 1119 1120 1121 1122 1123 1124 1125 
1126 1127 1128 1129 1130 1131 1132 1133 1134 
1135 1136 1137 1138 1139 1140 1141 1142 1143 
1144 1145 1146 1147 1148 1149 1150 1151 1152 
1153 1154 1155 1156 1157 1158 1159 1160 1161 
1162 1163 1164 1165 1166 1167 1168 1169 1170 
1171 1172 1173 1174 1175 1176 1177 1178 1179 
1180 1181 1182 1183 1184 1185 1186 1187 1188 
1189 1190 1191 1192 1193 1194 1195 1196 1197 
1198 1199 1200 1201 1202 1203 1204 1205 1206 
1207 1208 1209 1210 1211 1212 1213 1214 1215 
1216 1217 1218 1219 1220 1221 1222 1223 1224 
1225 1226 1227 1228 1229 1230 1231 1232 1233 
1234 1235 1236 1237 1238 1239 1240 1241 1242 
1243 1244 1245 1246 1247 1248 1249 1250 1251 
1252 1253 1254 1255 1256 1257 1258 1259 1260 
1261 1262 1263 1264 1265 1266 1267 1268 1269 
1270 1271 1272 1273 1274 1275 1276 1277 1278 
1279 1280 1281 1282 1283 1284 1285 1286 1287 
1288 1289 1290 1291 1292 1293 1294 1295 1296 
1297 1298 1299 1300 1301 1302 1303 1304 1305 
1306 1307 1308 1309 1310 1311 1312 1313 1314 
1315 1316 1317 1318 1319 1320 1321 1322 1323 
1324 1325 1326 1327 1328 1329 1330 1331 1332 
1333 1334 1335 1336 1337 1338 1339 1340 1341 
1342 1343 1344 1345 1346 1347 1348 1349 1350 
1351 1352 1353 1354 1355 1356 1357 1358 1359 
1360 1361 1362 1363 1364 1365 1366 1367 1368 
1369 1370 1371 1372 1373 1374 1375 1376 1377 
1378 1379 1380 1381 1382 1383 1384 1385 1386 
1387 1388 1389 1390 1391 1392 1393 1394 1395 
1396 1397 1398 1399 1400 1401 1402 1403 1404 
1405 1406 1407 1408 1409 1410 1411 1412 1413 
1414 1415 1416 1417 1418 1419 1420 1421 1422 
1423 1424 1425 1426 1427 1428 1429 1430 1431 
1432 1433 1434 1435 1436 1437 1438 1439 1440 
1441 1442 1443 1444 1445 1446 1447 1448 1449 
1450 1451 1452 1453 1454 1455 1456 1457 1458 
1459 1460 1461 1462 1463 1464 1465 1466 1467 
1468 1469 1470 1471 1472 1473 1474 1475 1476 
1477 1478 1479 1480 1481 1482 1483 1484 1485 
1486 1487 1488 1489 1490 1491 1492 1493 1494 
1495 1496 1497 1498 1499 1500 1501 1502 1503 
1504 1505 1506 1507 1508 1509 1510 1511 1512 
1513 1514 1515 1516 1517 1518 1519 1520 1521 
1522 1523 1524 1525 1526 1527 1528 1529 1530 
1531 1532 1533 1534 1535 1536 1537 1538 1539 
1540 1541 1542 1543 1544 1545 1546 1547 1548 
1549 1550 1551 1552 1553 1554 1555 1556 1557 
1558 1559 1560 1561 1562 1563 1564 1565 1566 
1567 1568 1569 1570 1571 1572 1573 1574 1575 
1576 1577 1578 1579 1580 1581 1582 1583 1584 
1585 1586 1587 1588 1589 1590 1591 1592 1593 
1594 1595 1596 1597 1598 1599 1600 1601 1602 
1603 1604 1605 1606 1607 1608 1609 1610 1611 
1612 1613 1614 1615 1616 1617 1618 1619 1620 
1621 1622 1623 1624 1625 1626 1627 1628 1629 
1630 1631 1632 1633 1634 1635 1636 1637 1638 
1639 1640 1641 1642 1643 1644 1645 1646 1647 
1648 1649 1650 1651 1652 1653 1654 1655 1656 
1657 1658 1659 1660 1661 1662 1663 1664 1665 
1666 1667 1668 1669 1670 1671 1672 1673 1674 
1675 1676 1677 1678 1679 1680 1681 1682 1683 
1684 1685 1686 1687 1688 1689 1690 1691 1692 
1693 1694 1695 1696 1697 1698 1699 1700 1701 
1702 1703 1704 1705 1706 1707 1708 1709 1710 
1711 1712 1713 1714 1715 1716 1717 1718 1719 
1720 1721 1722 1723 1724 1725 1726 1727 1728 
1729 1730 1731 1732 1733 1734 1735 1736 1737 
1738 1739 1740 1741 1742 1743 1744 1745 1746 
1747 1748 1749 1750 1751 1752 1753 1754 1755 
1756 1757 1758 1759 1760 1761 1762 1763 1764 
1765 1766 1767 1768 1769 1770 1771 1772 1773 
1774 1775 1776 1777 1778 1779 1780 1781 1782 
1783 1784 1785 1786 1787 1788 1789 1790 1791 
1792 1793 1794 1795 1796 1797 1798 1799 1800 
1801 1802 1803 1804 1805 1806 1807 1808 1809 
1810 1811 1812 1813 1814 1815 1816 1817 1818 
1819 1820 1821 1822 1823 1824 1825 1826 1827 
1828 1829 1830 1831 1832 1833 1834 1835 1836 
1837 1838 1839 1840 1841 1842 1843 1844 1845 
1846 1847 1848 1849 1850 1851 1852 1853 1854 
1855 1856 1857 1858 1859 1860 1861 1862 1863 
1864 1865 1866 1867 1868 1869 1870 1871 1872 
1873 1874 1875 1876 1877 1878 1879 1880 1881 
1882 1883 1884 1885 1886 1887 1888 1889 1890 
1891 1892 1893 1894 1895 1896 1897 1898 1899 
1900 1901 1902 1903 1904 1905 1906 1907 1908 
1909 1910 1911 1912 1913 1914 1915 1916 1917 
1918 1919 1920 1921 1922 1923 1924 1925 1926 
1927 1928 1929 1930 1931 1932 1933 1934 1935 
1936 1937 1938 1939 1940 1941 1942 1943 1944 
1945 1946 1947 1948 1949 1950 1951 1952 1953 
1954 1955 1956 1957 1958 1959 1960 1961 1962 
1963 1964 1965 1966 1967 1968 1969 1970 1971 
1972 1973 1974 1975 1976 1977 1978 1979 1980 
1981 1982 1983 1984 1985 1986 1987 1988 1989 
1990 1991 1992 1993 1994 1995 1996 1997 1998 
1999 2000 
common/Scalar1 1 2000 double
500 500 500 500 500 500 500 500 500 
500 500 500 500 500 500 500 500 500 
500 500 500 500 500 500 500 500 500 
500 500 500 500 500 500 500 500 500 
500 500 500 500 500 500 500 500 500 
500 500 500 500 500 500 500 500 500 
500 500 500 500 500 500 500 500 500 
500 500 500 500 500 500 500 500 500 
500 500 500 500 500 500 500 500 500 
500 500 500 500 500 500 500 500 500 
500 500 500 500 500 500 500 500 500 
500 500 500 500 500 500 500 500 500 
500 500 500 500 500 500 500 500 500 
500 500 500 500 500 500 500 500 500 
500 500 500 500 500 500 500 500 500 
500 500 500 500 500 500 500 500 500 
500 500 500 500 500 500 500 500 500 
500 500 500 500 500 500 500 500 500 
500 500 500 500 500 500 500 500 500 
500 500 500 500 500 500 500 500 500 
500 500 500 500 500 500 500 500 500 
500 500 500 500 500 500 500 500 500 
500 500 500 500 500 500 500 500 500 
500 500 500 500 500 500 500 500 500 
500 500 500 500 500 500 500 500 500 
500 500 500 500 500 500 500 500 500 
500 500 500 500 500 500 500 500 500 
500 500 500 500 500 500 500 500 500 
500 500 500 500 500 500 500 500 500 
500 500 500 500 500 500 500 500 500 
500 500 500 500 500 500 500 500 500 
500 500 500 500 500 500 500 500 500 
500 500 500 500 500 500 500 500 500 
500 500 500 500 500 500 500 500 500 
500 500 500 500 500 500 500 500 500 
500 500 500 500 500 500 500 500 500 
500 500 500 500 500 500 500 500 500 
500 500 500 500 500 500 500 500 500 
500 500 500 500 500 500 500 500 500 
500 500 500 500 500 500 500 500 500 
500 500 500 500 500 500 500 500 500 
500 500 500 500 500 500 500 500 500 
500 500 500 500 500 500 500 500 500 
500 500 500 500 500 500 500 500 500 
500 500 500 500 500 500 500 500 500 
500 500 500 500 500 500 500 500 500 
500 500 500 500 500 500 500 500 500 
500 500 500 500 500 500 500 500 500 
500 500 500 500 500 500 500 500 500 
500 500 500 500 500 500 500 500 500 
500 500 500 500 500 500 500 500 500 
500 500 500 500 500 500 500 500 500 
500 500 500 500 500 500 500 500 500 
500 500 500 500 500 500 500 500 500 
500 500 500 500 500 500 500 500 500 
500 500 500 500 500 500 500 500 500 
500 500 500 500 500 500 500 500 500 
500 500 500 500 500 500 500 500 500 
500 500 500 500 500 500 500 500 500 
500 500 500 500 500 500 500 500 500 
500 500 500 500 500 500 500 500 500 
500 500 500 500 500 500 500 500 500 
500 500 500 500 500 500 500 500 500 
500 500 500 500 500 500 500 500 500 
500 500 500 500 500 500 500 500 500 
500 500 500 500 500 500 500 500 500 
500 500 500 500 500 500 500 500 500 
500 500 500 500 500 500 500 500 500 
500 500 500 500 500 500 500 500 500 
500 500 500 500 500 500 500 500 500 
500 500 500 500 500 500 500 500 500 
500 500 500 500 500 500 500 500 500 
500 500 500 500 500 500 500 500 500 
500 500 500 500 500 500 500 500 500 
500 500 500 500 500 500 500 500 500 
500 500 500 500 500 500 500 500 500 
500 500 500 500 500 500 500 500 500 
500 500 500 500 500 500 500 500 500 
500 500 500 500 500 500 500 500 500 
500 500 500 500 500 500 500 500 500 
500 500 500 500 500 500 500 500 500 
500 500 500 500 500 500 500 500 500 
500 500 500 500 500 500 500 500 500 
500 500 500 500 500 500 500 500 500 
500 500 500 500 500 500 500 500 500 
500 500 500 500 500 500 500 500 500 
500 500 500 500 500 500 500 500 500 
500 500 500 500 500 500 500 500 500 
500 500 500 500 500 500 500 500 500 
500 500 500 500 500 500 500 500 500 
500 500 500 500 500 500 500 500 500 
500 500 500 500 500 500 500 500 500 
500 500 500 500 500 500 500 500 500 
500 500 500 500 500 500 500 500 500 
500 500 500 500 500 500 500 500 500 
500 500 500 500 500 500 500 500 500 
500 500 500 500 500 500 500 500 500 
500 500 500 500 500 500 500 500 500 
500 500 500 500 500 500 500 500 500 
500 500 500 500 500 500 500 500 500 
500 500 500 500 500 500 500 500 500 
500 500 500 500 500 500 500 500 500 
500 500 500 500 500 500 500 500 500 
500 500 500 500 500 500 500 500 500 
500 500 500 500 500 500 500 500 500 
500 500 500 500 500 500 500 500 500 
500 500 500 500 500 500 500 500 500 
500 500 500 500 500 500 500 500 500 
500 500 500 500 500 500 500 500 500 
500 500 500 500 500 500 500 500 500 
500 500 500 500 500 500 500 500 500 
500 500 500 500 500 500 500 500 500 
500 500 500 500 500 500 500 500 500 
500 500 500 500 500 500 500 500 500 
500 500 500 500 500 500 500 500 500 
500 500 500 500 500 500 500 500 500 
500 500 500 500 500 500 500 500 500 
500 500 500 500 500 500 500 500 500 
500 500 500 500 500 500 500 500 500 
500 500 500 500 500 500 500 500 500 
500 500 500 500 500 500 500 500 500 
500 500 500 500 500 500 500 500 500 
500 500 500 500 500 500 500 500 500 
500 500 500 500 500 500 500 500 500 
500 500 500 500 500 500 500 500 500 
500 500 500 500 500 500 500 500 500 
500 500 500 500 500 500 500 500 500 
500 500 500 500 500 500 500 500 500 
500 500 500 500 500 500 500 500 500 
500 500 500 500 500 500 500 500 500 
500 500 500 500 500 500 500 500 500 
500 500 500 500 500 500 500 500 500 
500 500 500 500 500 500 500 500 500 
500 500 500 500 500 500 500 500 500 
500 500 500 500 500 500 500 500 500 
500 500 500 500 500 500 500 500 500 
500 500 500 500 500 500 500 500 500 
500 500 500 500 500 500 500 500 500 
500 500 500 500 500 500 500 500 500 
500 500 500 500 500 500 500 500 500 
500 500 500 500 500 500 500 500 500 
500 500 500 500 500 500 500 500 500 
500 500 500 500 500 500 500 500 500 
500 500 500 500 500 500 500 500 500 
500 500 500 500 500 500 500 500 500 
500 500 500 500 500 500 500 500 500 
500 500 500 500 500 500 500 500 500 
500 500 500 500 500 500 500 500 500 
500 500 500 500 500 500 500 500 500 
500 500 500 500 500 500 500 500 500 
500 500 500 500 500 500 500 500 500 
500 500 500 500 500 500 500 500 500 
500 500 500 500 500 500 500 500 500 
500 500 500 500 500 500 500 500 500 
500 500 500 500 500 500 500 500 500 
500 500 500 500 500 500 500 500 500 
500 500 500 500 500 500 500 500 500 
500 500 500 500 500 500 500 500 500 
500 500 500 500 500 500 500 500 500 
500 500 500 500 500 500 500 500 500 
500 500 500 500 500 500 500 500 500 
500 500 500 500 500 500 500 500 500 
500 500 500 500 500 500 500 500 500 
500 500 500 500 500 500 500 500 500 
500 500 500 500 500 500 500 500 500 
500 500 500 500 500 500 500 500 500 
500 500 500 500 500 500 500 500 500 
500 500 500 500 500 500 500 500 500 
500 500 500 500 500 500 500 500 500 
500 500 500 500 500 500 500 500 500 
500 500 500 500 500 500 500 500 500 
500 500 500 500 500 500 500 500 500 
500 500 500 500 500 500 500 500 500 
500 500 500 500 500 500 500 500 500 
500 500 500 500 500 500 500 500 500 
500 500 500 500 500 500 500 500 500 
500 500 500 500 500 500 500 500 500 
500 500 500 500 500 500 500 500 500 
500 500 500 500 500 500 500 500 500 
500 500 500 500 500 500 500 500 500 
500 500 500 500 500 500 500 500 500 
500 500 500 500 500 500 500 500 500 
500 500 500 500 500 500 500 500 500 
500 500 500 500 500 500 500 500 500 
500 500 500 500 500 500 500 500 500 
500 500 500 500 500 500 500 500 500 
500 500 500 500 500 500 500 500 500 
500 500 500 500 500 500 500 500 500 
500 500 500 500 500 500 500 500 500 
500 500 500 500 500 500 500 500 500 
500 500 500 500 500 500 500 500 500 
500 500 500 500 500 500 500 500 500 
500 500 500 500 500 500 500 500 500 
500 500 500 500 500 500 500 500 500 
500 500 500 500 500 500 500 500 500 
500 500 500 500 500 500 500 500 500 
500 500 500 500 500 500 500 500 500 
500 500 500 500 500 500 500 500 500 
500 500 500 500 500 500 500 500 500 
500 500 500 500 500 500 500 500 500 
500 500 500 500 500 500 500 500 500 
500 500 500 500 500 500 500 500 500 
500 500 500 500 500 500 500 500 500 
500 500 500 500 500 500 500 500 500 
500 500 500 500 500 500 500 500 500 
500 500 500 500 500 500 500 500 500 
500 500 500 500 500 500 500 500 500 
500 500 500 500 500 500 500 500 500 
500 500 500 500 500 500 500 500 500 
500 500 500 500 500 500 500 500 500 
500 500 500 500 500 500 500 500 500 
500 500 500 500 500 500 500 500 500 
500 500 500 500 500 500 500 500 500 
500 500 500 500 500 500 500 500 500 
500 500 500 500 500 500 500 500 500 
500 500 500 500 500 500 500 500 500 
500 500 500 500 500 500 500 500 500 
500 500 500 500 500 500 500 500 500 
500 500 500 500 500 500 500 500 500 
500 500 500 500 500 500 500 500 500 
500 500 500 500 500 500 500 500 500 
500 500 500 500 500 500 500 500 500 
500 500 
common/Scalar2 1 2000 double
300000 300000 300000 300000 300000 300000 300000 300000 300000 
300000 300000 300000 300000 300000 300000 300000 300000 300000 
300000 300000 300000 300000 300000 300000 300000 300000 300000 
300000 300000 300000 300000 300000 300000 300000 300000 300000 
300000 300000 300000 300000 300000 300000 300000 300000 300000 
300000 300000 300000 300000 300000 300000 300000 300000 300000 
300000 300000 300000 300000 300000 300000 300000 300000 300000 
300000 300000 300000 300000 300000 300000 300000 300000 300000 
300000 300000 300000 300000 300000 300000 300000 300000 300000 
300000 300000 300000 300000 300000 300000 300000 300000 300000 
300000 300000 300000 300000 300000 300000 300000 300000 300000 
300000 300000 300000 300000 300000 300000 300000 300000 300000 
300000 300000 300000 300000 300000 300000 300000 300000 300000 
300000 300000 300000 300000 300000 300000 300000 300000 300000 
300000 300000 300000 300000 300000 300000 300000 300000 300000 
300000 300000 300000 300000 300000 300000 300000 300000 300000 
300000 300000 300000 300000 300000 300000 300000 300000 300000 
300000 300000 300000 300000 300000 300000 300000 300000 300000 
300000 300000 300000 300000 300000 300000 300000 300000 300000 
300000 300000 300000 300000 300000 300000 300000 300000 300000 
300000 300000 300000 300000 300000 300000 300000 300000 300000 
300000 300000 300000 300000 300000 300000 300000 300000 300000 
300000 300000 300000 300000 300000 300000 300000 300000 300000 
300000 300000 300000 300000 300000 300000 300000 300000 300000 
300000 300000 300000 300000 300000 300000 300000 300000 300000 
300000 300000 300000 300000 300000 300000 300000 300000 300000 
300000 300000 300000 300000 300000 300000 300000 300000 300000 
300000 300000 300000 300000 300000 300000 300000 300000 300000 
300000 300000 300000 300000 300000 300000 300000 300000 300000 
300000 300000 300000 300000 300000 300000 300000 300000 300000 
300000 300000 300000 300000 300000 300000 300000 300000 300000 
300000 300000 300000 300000 300000 300000 300000 300000 300000 
300000 300000 300000 300000 300000 300000 300000 300000 300000 
300000 300000 300000 300000 300000 300000 300000 300000 300000 
300000 300000 300000 300000 300000 300000 300000 300000 300000 
300000 300000 300000 300000 300000 300000 300000 300000 300000 
300000 300000 300000 300000 300000 300000 300000 300000 300000 
300000 300000 300000 300000 300000 300000 300000 300000 300000 
300000 300000 300000 300000 300000 300000 300000 300000 300000 